 Gaussian 03, Revision B.04,
 Gaussian 03:  x86-Linux-G03RevB.04 2-Jun-2003

 ----------------------------
 #p opt freq b3lyp 6-31G(d,p)
 ----------------------------

 -----------------------------------
 Reactant. CONTINUING FROM: reac.log
 -----------------------------------
 Symbolic Z-matrix:
 Charge = -1 Multiplicity = 1

 SCF Done:  E(RB+HF-LYP) =  -3071.89417247     A.U. after   14 cycles
 Optimization completed.
    -- Stationary point found.
 Normal termination of Gaussian 03 at Fri Dec 14 16:03:18 2012.

 --------------------------------------------------------------------
 #P Geom=AllCheck Guess=Read SCRF=Check GenChk RB3LYP/6-31G(d,p) Freq
 --------------------------------------------------------------------

 Reactant. CONTINUING FROM: reac.log
 -----------------------------------
 Redundant internal coordinates taken from checkpoint file:
 /data3/tk/scrg03/Gau-18526.chk
 Charge = -1 Multiplicity = 1

                         Standard orientation:
 ---------------------------------------------------------------------
 Center     Atomic     Atomic              Coordinates (Angstroms)
 Number     Number      Type              X           Y           Z
 ---------------------------------------------------------------------
    1          6             0        0.000000    0.319226    0.000000
    2          1             0       -1.042552    0.608735    0.000000
    3          1             0        0.512541    0.638030    0.898119
    4          1             0        0.512541    0.638030   -0.898119
    5         35             0        0.039659   -1.726827    0.000000
    6         17             0       -0.080622    3.331693    0.000000
 ---------------------------------------------------------------------

 SCF Done:  E(RB+HF-LYP) =  -3071.89417247     A.U. after    1 cycles

 The electronic state is 1-A'.
 Alpha  occ. eigenvalues -- -482.75290-101.22914 -61.71581 -56.23615 -56.23314
 Alpha  occ. eigenvalues --  -56.23313 -10.08502  -9.14132  -8.42757  -6.89990
 Alpha  occ. eigenvalues --   -6.89892  -6.89892  -6.38002  -6.36955  -6.36955
 Alpha  occ. eigenvalues --   -2.49593  -2.49300  -2.49300  -2.48466  -2.48466
 Alpha  occ. eigenvalues --   -0.63695  -0.52052  -0.47883  -0.28534  -0.28521
 Alpha  occ. eigenvalues --   -0.22369  -0.13743  -0.13741  -0.02872  -0.02654
 Alpha  occ. eigenvalues --   -0.02653
 Alpha virt. eigenvalues --    0.14045   0.26053   0.30909   0.30946   0.41291
 Alpha virt. eigenvalues --    0.56502   0.56502   0.57203   0.61781   0.61782
 Alpha virt. eigenvalues --    0.62342   0.64109   0.64109   0.70266   0.70308

 Mulliken atomic charges:
              1
     1  C   -0.267444
     2  H    0.166835
     3  H    0.165680
     4  H    0.165680
     5  Br  -0.329555
     6  Cl  -0.901197
 Sum of Mulliken charges=  -1.00000

 Dipole moment (field-independent basis, Debye):
    X=     0.2673    Y=   -10.6116    Z=     0.0000  Tot=    10.6150
 Quadrupole moment (field-independent basis, Debye-Ang):
   XX=   -41.3125   YY=   -93.4361   ZZ=   -41.2843
   XY=     1.2628   XZ=     0.0000   YZ=     0.0000

  Exact polarizability:  28.560  -1.427  89.667   0.000   0.000  28.529
 Approx polarizability:  40.383  -1.856 121.195   0.000   0.000  40.333

                     1                      2                      3
                    A'                     A"                     A'
 Frequencies --    78.1953                79.6321               113.9848
 Red. masses --     3.3294                 3.3340                28.5043
 Frc consts  --     0.0120                 0.0125                 0.2182
 IR Inten    --     7.8063                 7.7755                53.8519

                     4                      5                      6
                    A'                     A'                     A"
 Frequencies --   436.4697               888.3241               894.0117
 Red. masses --     7.5107                 1.1225                 1.1215
 Frc consts  --     0.8430                 0.5219                 0.5281
 IR Inten    --   274.0291                 1.3903                 1.4079

                     7                      8                      9
                    A'                     A"                     A'
 Frequencies --  1227.7042              1456.8858              1457.5397
 Red. masses --     1.0914                 1.0682                 1.0683
 Frc consts  --     0.9692                 1.3359                 1.3372
 IR Inten    --    38.6144                 6.8869                 6.8980

                    10                     11                     12
                    A'                     A"                     A'
 Frequencies --  3157.8241              3296.1723              3296.7842
 Red. masses --     1.0222                 1.1127                 1.1128
 Frc consts  --     6.0056                 7.1230                 7.1259
 IR Inten    --     2.3661                 0.0765                 0.0555

 - Thermochemistry -
 -------------------
 Temperature   298.150 Kelvin.  Pressure   1.00000 Atm.
 Atom  1 has atomic number  6 and mass  12.00000

 Molecular mass:   128.91066 amu.
 Principal axes and moments of inertia in atomic units:
                           1         2         3
     EIGENVALUES --    11.614422236.742792236.74511
           X           -0.02367   0.99972   0.00000
           Y            0.99972   0.02367   0.00000
           Z            0.00000   0.00000   1.00000
 This molecule is an asymmetric top.
 Rotational symmetry number  1.
 Rotational temperatures (Kelvin)      7.45744     0.03872     0.03872
 Rotational constants (GHZ):         155.38802     0.80686     0.80686
 Zero-point vibrational energy      97995.3 (Joules/Mol)
                                   23.42143 (Kcal/Mol)
 Warning -- explicit consideration of   4 degrees of freedom as
           vibrations may cause significant error
 Vibrational temperatures:    112.51   114.57   164.00   627.98  1278.10
          (Kelvin)           1286.28  1766.39  2096.13  2097.07  4543.40
                             4742.45  4743.33

 Zero-point correction=                           0.037324 (Hartree/Particle)
 Thermal correction to Energy=                    0.042831
 Thermal correction to Enthalpy=                  0.043775
 Thermal correction to Gibbs Free Energy=         0.006587
 Sum of electronic and zero-point Energies=          -3071.856848
 Sum of electronic and thermal Energies=             -3071.851342
 Sum of electronic and thermal Enthalpies=           -3071.850398
 Sum of electronic and thermal Free Energies=        -3071.887586

                     E (Thermal)             CV                S
                      KCal/Mol        Cal/Mol-Kelvin    Cal/Mol-Kelvin
 Total                   26.877             14.603             78.269
 Electronic               0.000              0.000              0.000
 Translational            0.889              2.981             40.475
 Rotational               0.889              2.981             25.566
 Vibrational             25.099              8.641             12.228
 Vibration  1             0.599              1.964              3.936
 Vibration  2             0.600              1.963              3.900
 Vibration  3             0.607              1.938              3.200
 Vibration  4             0.797              1.391              0.838

 Normal termination of Gaussian 03 at Fri Dec 14 16:04:54 2012.
