 Gaussian 03, Revision B.04,
 Gaussian 03:  x86-Linux-G03RevB.04 2-Jun-2003

 ----------------------------
 #p opt freq b3lyp 6-31G(d,p)
 ----------------------------

 -----------------------------------
 Reactant. CONTINUING FROM: reac.log
 -----------------------------------
 Symbolic Z-matrix:
 Charge = -1 Multiplicity = 1

 SCF Done:  E(RB+HF-LYP) =  -3071.89202111     A.U. after   14 cycles
 SCF Done:  E(RB+HF-LYP) =  -3071.89468414     A.U. after   12 cycles
 SCF Done:  E(RB+HF-LYP) =  -3071.89523634     A.U. after   12 cycles
 SCF Done:  E(RB+HF-LYP) =  -3071.89572072     A.U. after   12 cycles
 SCF Done:  E(RB+HF-LYP) =  -3071.89583790     A.U. after   10 cycles
 SCF Done:  E(RB+HF-LYP) =  -3071.89588990     A.U. after   11 cycles
 SCF Done:  E(RB+HF-LYP) =  -3071.89591881     A.U. after   10 cycles
 SCF Done:  E(RB+HF-LYP) =  -3071.89592798     A.U. after    8 cycles
 Optimization completed.
    -- Stationary point found.
 Normal termination of Gaussian 03 at Fri Dec 14 16:34:23 2012.

 --------------------------------------------------------------------
 #P Geom=AllCheck Guess=Read SCRF=Check GenChk RB3LYP/6-31G(d,p) Freq
 --------------------------------------------------------------------

 Reactant. CONTINUING FROM: reac.log
 -----------------------------------
 Redundant internal coordinates taken from checkpoint file:
 /data3/tk/scrg03/Gau-19648.chk
 Charge = -1 Multiplicity = 1

                         Standard orientation:
 ---------------------------------------------------------------------
 Center     Atomic     Atomic              Coordinates (Angstroms)
 Number     Number      Type              X           Y           Z
 ---------------------------------------------------------------------
    1          6             0        0.000000    1.306589    0.000000
    2          1             0        1.026321    0.956739    0.000000
    3          1             0       -0.520166    0.977878    0.892834
    4          1             0       -0.520166    0.977878   -0.892834
    5         17             0        0.024767    3.181648    0.000000
    6         35             0       -0.011630   -1.852573    0.000000
 ---------------------------------------------------------------------

 SCF Done:  E(RB+HF-LYP) =  -3071.89592798     A.U. after    1 cycles

 The electronic state is 1-A'.
 Alpha  occ. eigenvalues -- -482.59908-101.39257 -61.56137 -56.08057 -56.08008
 Alpha  occ. eigenvalues --  -56.08008 -10.08826  -9.30889  -8.27199  -7.07191
 Alpha  occ. eigenvalues --   -7.06354  -7.06354  -6.21845  -6.21733  -6.21733
 Alpha  occ. eigenvalues --   -2.33546  -2.33517  -2.33516  -2.33427  -2.33427
 Alpha  occ. eigenvalues --   -0.69112  -0.52871  -0.44293  -0.29052  -0.29042
 Alpha  occ. eigenvalues --   -0.25554  -0.16094  -0.16092  -0.01752  -0.01485
 Alpha  occ. eigenvalues --   -0.01482
 Alpha virt. eigenvalues --    0.16175   0.26457   0.30583   0.30627   0.47619
 Alpha virt. eigenvalues --    0.52432   0.58644   0.58644   0.59279   0.66021
 Alpha virt. eigenvalues --    0.66053   0.66987   0.74675   0.74689   0.74879

 Mulliken atomic charges:
              1
     1  C   -0.341111
     2  H    0.167989
     3  H    0.166611
     4  H    0.166611
     5  Cl  -0.257781
     6  Br  -0.902318
 Sum of Mulliken charges=  -1.00000

 Dipole moment (field-independent basis, Debye):
    X=     0.0071    Y=     3.7758    Z=     0.0000  Tot=     3.7758
 Quadrupole moment (field-independent basis, Debye-Ang):
   XX=   -41.4008   YY=   -72.3407   ZZ=   -41.4039
   XY=    -0.2307   XZ=     0.0000   YZ=     0.0000

  Exact polarizability:  29.817   0.422  84.413   0.000   0.000  29.821
 Approx polarizability:  42.613   0.557 110.484   0.000   0.000  42.596

                     1                      2                      3
                    A"                     A'                     A'
 Frequencies --    77.0939                83.8854               104.9897
 Red. masses --     3.1645                 3.1956                14.4320
 Frc consts  --     0.0111                 0.0132                 0.0937
 IR Inten    --     6.5422                 6.6235                18.4299

                     4                      5                      6
                    A'                     A'                     A"
 Frequencies --   526.8612               952.4757               957.2049
 Red. masses --     9.2250                 1.1522                 1.1525
 Frc consts  --     1.5087                 0.6159                 0.6222
 IR Inten    --   333.7895                 1.3480                 1.3269

                     7                      8                      9
                    A'                     A"                     A'
 Frequencies --  1286.2306              1463.0135              1464.0481
 Red. masses --     1.0972                 1.0649                 1.0648
 Frc consts  --     1.0695                 1.3429                 1.3447
 IR Inten    --     9.1330                 6.0218                 6.0542

                    10                     11                     12
                    A'                     A'                     A"
 Frequencies --  3140.5841              3267.3461              3267.3921
 Red. masses --     1.0246                 1.1117                 1.1115
 Frc consts  --     5.9545                 6.9922                 6.9914
 IR Inten    --     6.2703                 1.1903                 1.3283

 - Thermochemistry -
 -------------------
 Temperature   298.150 Kelvin.  Pressure   1.00000 Atm.
 Atom  1 has atomic number  6 and mass  12.00000

 Molecular mass:   128.91066 amu.
 Principal axes and moments of inertia in atomic units:
                           1         2         3
     EIGENVALUES --    11.483212313.122272313.12963
           X            0.00685   0.99998   0.00000
           Y            0.99998  -0.00685   0.00000
           Z            0.00000   0.00000   1.00000
 This molecule is an asymmetric top.
 Rotational symmetry number  1.
 Rotational temperatures (Kelvin)      7.54265     0.03744     0.03744
 Rotational constants (GHZ):         157.16347     0.78022     0.78022
 Zero-point vibrational energy      99237.0 (Joules/Mol)
                                   23.71820 (Kcal/Mol)
 Warning -- explicit consideration of   4 degrees of freedom as
           vibrations may cause significant error
 Vibrational temperatures:    110.92   120.69   151.06   758.03  1370.40
          (Kelvin)           1377.20  1850.60  2104.95  2106.44  4518.59
                             4700.98  4701.04

 Zero-point correction=                           0.037797 (Hartree/Particle)
 Thermal correction to Energy=                    0.043216
 Thermal correction to Enthalpy=                  0.044161
 Thermal correction to Gibbs Free Energy=         0.007056
 Sum of electronic and zero-point Energies=          -3071.858131
 Sum of electronic and thermal Energies=             -3071.852712
 Sum of electronic and thermal Enthalpies=           -3071.851767
 Sum of electronic and thermal Free Energies=        -3071.888872

                     E (Thermal)             CV                S
                      KCal/Mol        Cal/Mol-Kelvin    Cal/Mol-Kelvin
 Total                   27.119             14.206             78.093
 Electronic               0.000              0.000              0.000
 Translational            0.889              2.981             40.475
 Rotational               0.889              2.981             25.622
 Vibrational             25.341              8.245             11.996
 Vibration  1             0.599              1.964              3.964
 Vibration  2             0.601              1.960              3.798
 Vibration  3             0.605              1.945              3.360
 Vibration  4             0.882              1.191              0.594

 Normal termination of Gaussian 03 at Fri Dec 14 16:36:27 2012.
