 Gaussian 03, Revision B.04,
 Gaussian 03:  x86-Linux-G03RevB.04 2-Jun-2003

 ----------------------------
 #p opt freq b3lyp 6-31G(d,p)
 ----------------------------

 -----------------------------------
 Reactant. CONTINUING FROM: reac.log
 -----------------------------------
 Symbolic Z-matrix:
 Charge =  0 Multiplicity = 1

 SCF Done:  E(RB+HF-LYP) =  -2611.61941477     A.U. after   12 cycles
 SCF Done:  E(RB+HF-LYP) =  -2611.62085077     A.U. after   12 cycles
 SCF Done:  E(RB+HF-LYP) =  -2611.62111187     A.U. after   10 cycles
 SCF Done:  E(RB+HF-LYP) =  -2611.62112677     A.U. after    7 cycles
 Optimization completed.
    -- Stationary point found.
 Normal termination of Gaussian 03 at Fri Dec 14 16:29:46 2012.

 --------------------------------------------------------------------
 #P Geom=AllCheck Guess=Read SCRF=Check GenChk RB3LYP/6-31G(d,p) Freq
 --------------------------------------------------------------------

 Reactant. CONTINUING FROM: reac.log
 -----------------------------------
 Redundant internal coordinates taken from checkpoint file:
 /data3/tk/scrg03/Gau-19573.chk
 Charge =  0 Multiplicity = 1

                         Standard orientation:
 ---------------------------------------------------------------------
 Center     Atomic     Atomic              Coordinates (Angstroms)
 Number     Number      Type              X           Y           Z
 ---------------------------------------------------------------------
    1          6             0        0.000004    1.539130    0.000000
    2          1             0       -1.036104    1.869481    0.000000
    3          1             0        0.517964    1.869628    0.897329
    4          1             0        0.517964    1.869628   -0.897329
    5         35             0        0.000004   -0.424101    0.000000
 ---------------------------------------------------------------------

 SCF Done:  E(RB+HF-LYP) =  -2611.62112677     A.U. after    1 cycles

 The electronic state is 1-A'.
 Alpha  occ. eigenvalues -- -482.89658 -61.85940 -56.38030 -56.37644 -56.37644
 Alpha  occ. eigenvalues --  -10.24117  -8.57144  -6.52572  -6.51242  -6.51242
 Alpha  occ. eigenvalues --   -2.64130  -2.63755  -2.63755  -2.62694  -2.62694
 Alpha  occ. eigenvalues --   -0.79640  -0.66875  -0.44547  -0.44545  -0.38204
 Alpha  occ. eigenvalues --   -0.27219  -0.27218
 Alpha virt. eigenvalues --    0.00287   0.10394   0.14501   0.14501   0.28458
 Alpha virt. eigenvalues --    0.42876   0.42876   0.45081   0.48253   0.48255
 Alpha virt. eigenvalues --    0.51316   0.51319   0.53698   0.65554   0.65560

 Mulliken atomic charges:
              1
     1  C   -0.335324
     2  H    0.159624
     3  H    0.159620
     4  H    0.159620
     5  Br  -0.143541
 Sum of Mulliken charges=   0.00000

 Dipole moment (field-independent basis, Debye):
    X=    -0.0002    Y=     1.9366    Z=     0.0000  Tot=     1.9366
 Quadrupole moment (field-independent basis, Debye-Ang):
   XX=   -25.4943   YY=   -21.5794   ZZ=   -25.4937
   XY=     0.0000   XZ=     0.0000   YZ=     0.0000

  Exact polarizability:  22.117   0.001  36.306   0.000   0.000  22.118
 Approx polarizability:  31.588   0.001  54.224   0.000   0.000  31.589

                     1                      2                      3
                    A'                     A'                     A"
 Frequencies --   591.9939               966.1600               966.4734
 Red. masses --     5.9471                 1.1397                 1.1397
 Frc consts  --     1.2280                 0.6268                 0.6272
 IR Inten    --    13.6505                 5.6785                 5.6870

                     4                      5                      6
                    A'                     A'                     A"
 Frequencies --  1342.2346              1490.1234              1490.2446
 Red. masses --     1.1313                 1.0596                 1.0596
 Frc consts  --     1.2009                 1.3863                 1.3865
 IR Inten    --    26.6753                 5.1484                 5.1341

                     7                      8                      9
                    A'                     A"                     A'
 Frequencies --  3099.0273              3213.0285              3213.3273
 Red. masses --     1.0254                 1.1102                 1.1101
 Frc consts  --     5.8025                 6.7526                 6.7537
 IR Inten    --    15.5719                 3.1991                 3.2178

 - Thermochemistry -
 -------------------
 Temperature   298.150 Kelvin.  Pressure   1.00000 Atm.
 Atom  1 has atomic number  6 and mass  12.00000

 Molecular mass:    93.94181 amu.
 Principal axes and moments of inertia in atomic units:
                           1         2         3
     EIGENVALUES --    11.59055 192.41649 192.41762
           X            0.00000   0.00000   1.00000
           Y            1.00000   0.00000   0.00000
           Z            0.00000   1.00000   0.00000
 This molecule is an asymmetric top.
 Rotational symmetry number  1.
 Rotational temperatures (Kelvin)      7.47279     0.45014     0.45013
 Rotational constants (GHZ):         155.70795     9.37935     9.37929
 Zero-point vibrational energy      97930.0 (Joules/Mol)
                                   23.40583 (Kcal/Mol)
 Warning -- explicit consideration of   1 degrees of freedom as
           vibrations may cause significant error
 Vibrational temperatures:    851.75  1390.09  1390.54  1931.17  2143.95
          (Kelvin)           2144.13  4458.80  4622.83  4623.26

 Zero-point correction=                           0.037300 (Hartree/Particle)
 Thermal correction to Energy=                    0.040400
 Thermal correction to Enthalpy=                  0.041344
 Thermal correction to Gibbs Free Energy=         0.012387
 Sum of electronic and zero-point Energies=          -2611.583827
 Sum of electronic and thermal Energies=             -2611.580727
 Sum of electronic and thermal Enthalpies=           -2611.579782
 Sum of electronic and thermal Free Energies=        -2611.608740

                     E (Thermal)             CV                S
                      KCal/Mol        Cal/Mol-Kelvin    Cal/Mol-Kelvin
 Total                   25.351              8.126             60.947
 Electronic               0.000              0.000              0.000
 Translational            0.889              2.981             39.532
 Rotational               0.889              2.981             20.689
 Vibrational             23.574              2.164              0.725
 Vibration  1             0.949              1.049              0.464

 Optimization completed.
    -- Stationary point found.
 Normal termination of Gaussian 03 at Fri Dec 14 16:31:15 2012.
