 Gaussian 03, Revision B.04,
 Gaussian 03:  x86-Linux-G03RevB.04 2-Jun-2003

 ----------------------------
 #p opt freq b3lyp 6-31G(d,p)
 ----------------------------

 -----------------------------------
 Reactant. CONTINUING FROM: reac.log
 -----------------------------------
 Symbolic Z-matrix:
 Charge = -1 Multiplicity = 1

 SCF Done:  E(RB+HF-LYP) =  -460.252233330     A.U. after    9 cycles
 Optimization completed.
    -- Stationary point found.
 Normal termination of Gaussian 03 at Fri Dec 14 16:20:52 2012.

 --------------------------------------------------------------------
 #P Geom=AllCheck Guess=Read SCRF=Check GenChk RB3LYP/6-31G(d,p) Freq
 --------------------------------------------------------------------

 -----------------------------------
 No Z-matrix found on checkpoint file.
 Cartesian coordinates read from the checkpoint file:
 /data3/tk/scrg03/Gau-18744.chk
 Charge = -1 Multiplicity = 1

                         Standard orientation:
 ---------------------------------------------------------------------
 Center     Atomic     Atomic              Coordinates (Angstroms)
 Number     Number      Type              X           Y           Z
 ---------------------------------------------------------------------
    1         17             0        0.000000    0.000000    0.000000
 ---------------------------------------------------------------------

 SCF Done:  E(RB+HF-LYP) =  -460.252233330     A.U. after    1 cycles

 The electronic state is 1-A1G.
 Alpha  occ. eigenvalues -- -101.18571  -9.09721  -6.85522  -6.85522  -6.85522
 Alpha  occ. eigenvalues --   -0.43622   0.01479   0.01479   0.01479
 Alpha virt. eigenvalues --    0.64337   0.73712   0.73712   0.73712   1.22493
 Alpha virt. eigenvalues --    1.22493   1.22493   1.22493   1.22493   4.55944

 Mulliken atomic charges:
              1
     1  Cl  -1.000000
 Sum of Mulliken charges=  -1.00000

 Dipole moment (field-independent basis, Debye):
    X=     0.0000    Y=     0.0000    Z=     0.0000  Tot=     0.0000
 Quadrupole moment (field-independent basis, Debye-Ang):
   XX=   -15.6577   YY=   -15.6577   ZZ=   -15.6577
   XY=     0.0000   XZ=     0.0000   YZ=     0.0000

  Exact polarizability:   6.488   0.000   6.488   0.000   0.000   6.488
 Approx polarizability:   7.554   0.000   7.554   0.000   0.000   7.554

 - Thermochemistry -
 -------------------
 Temperature   298.150 Kelvin.  Pressure   1.00000 Atm.
 Atom  1 has atomic number 17 and mass  34.96885
 Molecular mass:    34.96885 amu.
 Zero-point vibrational energy          0.0 (Joules/Mol)
                                    0.00000 (Kcal/Mol)
 Vibrational temperatures:
          (Kelvin)

 Zero-point correction=                           0.000000 (Hartree/Particle)
 Thermal correction to Energy=                    0.001416
 Thermal correction to Enthalpy=                  0.002360
 Thermal correction to Gibbs Free Energy=        -0.015023
 Sum of electronic and zero-point Energies=           -460.252233
 Sum of electronic and thermal Energies=              -460.250817
 Sum of electronic and thermal Enthalpies=            -460.249873
 Sum of electronic and thermal Free Energies=         -460.267256

                     E (Thermal)             CV                S
                      KCal/Mol        Cal/Mol-Kelvin    Cal/Mol-Kelvin
 Total                    0.889              2.981             36.586
 Electronic               0.000              0.000              0.000
 Translational            0.889              2.981             36.586
 Rotational               0.000              0.000              0.000
 Vibrational              0.000              0.000              0.000

 Optimization completed.
    -- Stationary point found.
 Normal termination of Gaussian 03 at Fri Dec 14 16:22:57 2012.
