 Gaussian 03, Revision B.04,
 Gaussian 03:  x86-Linux-G03RevB.04 2-Jun-2003

 ----------------------------
 #p opt freq b3lyp 6-31G(d,p)
 ----------------------------

 -----------------------------------
 Reactant. CONTINUING FROM: reac.log
 -----------------------------------
 Symbolic Z-matrix:
 Charge =  0 Multiplicity = 1

 SCF Done:  E(RB+HF-LYP) =  -500.098486879     A.U. after   12 cycles
 SCF Done:  E(RB+HF-LYP) =  -500.109859661     A.U. after   13 cycles
 SCF Done:  E(RB+HF-LYP) =  -500.112278664     A.U. after   11 cycles
 SCF Done:  E(RB+HF-LYP) =  -500.112534751     A.U. after    9 cycles
 SCF Done:  E(RB+HF-LYP) =  -500.112548634     A.U. after    7 cycles
 Optimization completed.
    -- Stationary point found.
 Normal termination of Gaussian 03 at Fri Dec 14 16:23:56 2012.

 --------------------------------------------------------------------
 #P Geom=AllCheck Guess=Read SCRF=Check GenChk RB3LYP/6-31G(d,p) Freq
 --------------------------------------------------------------------

 Reactant. CONTINUING FROM: reac.log
 -----------------------------------
 Redundant internal coordinates taken from checkpoint file:
 /data3/tk/scrg03/Gau-18826.chk
 Charge =  0 Multiplicity = 1

                         Standard orientation:
 ---------------------------------------------------------------------
 Center     Atomic     Atomic              Coordinates (Angstroms)
 Number     Number      Type              X           Y           Z
 ---------------------------------------------------------------------
    1          6             0        0.000003    1.139153    0.000000
    2          1             0       -1.033068    1.484238    0.000000
    3          1             0        0.516504    1.484245    0.894686
    4          1             0        0.516504    1.484245   -0.894686
    5         17             0        0.000003   -0.663979    0.000000
 ---------------------------------------------------------------------

 SCF Done:  E(RB+HF-LYP) =  -500.112548634     A.U. after    1 cycles

 The electronic state is 1-A'.
 Alpha  occ. eigenvalues -- -101.53522 -10.24619  -9.45163  -7.21584  -7.20558
 Alpha  occ. eigenvalues --   -7.20558  -0.84851  -0.68011  -0.45156  -0.45155
 Alpha  occ. eigenvalues --   -0.41203  -0.29643  -0.29643
 Alpha virt. eigenvalues --    0.02564   0.10633   0.14309   0.14310   0.40203
 Alpha virt. eigenvalues --    0.43924   0.45970   0.45972   0.52267   0.52267
 Alpha virt. eigenvalues --    0.55579   0.82389   0.82390   0.85855   0.89296

 Mulliken atomic charges:
              1
     1  C   -0.398919
     2  H    0.163845
     3  H    0.163845
     4  H    0.163845
     5  Cl  -0.092617
 Sum of Mulliken charges=   0.00000

 Dipole moment (field-independent basis, Debye):
    X=     0.0000    Y=     2.0803    Z=     0.0000  Tot=     2.0803
 Quadrupole moment (field-independent basis, Debye-Ang):
   XX=   -19.7450   YY=   -17.9455   ZZ=   -19.7448
   XY=     0.0000   XZ=     0.0000   YZ=     0.0000

  Exact polarizability:  16.474   0.000  28.206   0.000   0.000  16.474
 Approx polarizability:  21.173   0.000  38.380   0.000   0.000  21.174

                     1                      2                      3
                    A'                     A"                     A'
 Frequencies --   719.7060              1035.5115              1035.5279
 Red. masses --     7.3428                 1.1679                 1.1680
 Frc consts  --     2.2409                 0.7378                 0.7379
 IR Inten    --    28.9231                 3.9633                 3.9659

                     4                      5                      6
                    A'                     A'                     A"
 Frequencies --  1398.2211              1495.0959              1495.1593
 Red. masses --     1.1282                 1.0557                 1.0557
 Frc consts  --     1.2995                 1.3903                 1.3905
 IR Inten    --    18.2078                 5.9587                 5.9570

                     7                      8                      9
                    A'                     A"                     A'
 Frequencies --  3087.4221              3191.9818              3192.1627
 Red. masses --     1.0269                 1.1094                 1.1094
 Frc consts  --     5.7672                 6.6599                 6.6606
 IR Inten    --    22.2138                 6.9062                 6.9145

 - Thermochemistry -
 -------------------
 Temperature   298.150 Kelvin.  Pressure   1.00000 Atm.
 Atom  1 has atomic number  6 and mass  12.00000

 Molecular mass:    49.99233 amu.
 Principal axes and moments of inertia in atomic units:
                           1         2         3
     EIGENVALUES --    11.52298 138.37973 138.38025
           X            0.00000   0.00000   1.00000
           Y            1.00000   0.00000   0.00000
           Z            0.00000   1.00000   0.00000
 This molecule is an asymmetric top.
 Rotational symmetry number  1.
 Rotational temperatures (Kelvin)      7.51662     0.62591     0.62591
 Rotational constants (GHZ):         156.62110    13.04195    13.04190
 Zero-point vibrational energy      99593.8 (Joules/Mol)
                                   23.80350 (Kcal/Mol)
 Vibrational temperatures:   1035.50  1489.87  1489.89  2011.73  2151.11
          (Kelvin)           2151.20  4442.11  4592.54  4592.80

 Zero-point correction=                           0.037933 (Hartree/Particle)
 Thermal correction to Energy=                    0.040953
 Thermal correction to Enthalpy=                  0.041897
 Thermal correction to Gibbs Free Energy=         0.014259
 Sum of electronic and zero-point Energies=           -500.074615
 Sum of electronic and thermal Energies=              -500.071596
 Sum of electronic and thermal Enthalpies=            -500.070652
 Sum of electronic and thermal Free Energies=         -500.098289

                     E (Thermal)             CV                S
                      KCal/Mol        Cal/Mol-Kelvin    Cal/Mol-Kelvin
 Total                   25.698              7.693             58.168
 Electronic               0.000              0.000              0.000
 Translational            0.889              2.981             37.651
 Rotational               0.889              2.981             20.029
 Vibrational             23.921              1.731              0.488

 Optimization completed.
    -- Stationary point found.
 Normal termination of Gaussian 03 at Fri Dec 14 16:25:52 2012.
