 Gaussian 03, Revision B.04,
 Gaussian 03:  x86-Linux-G03RevB.04 2-Jun-2003

 -----------------------------------------------------------
 #p Opt=(CalcFC,TS,Noeigentest) Freq nosymm b3lyp 6-31G(d,p)
 -----------------------------------------------------------

 -----------------------
 Geom from: ts_guess.xyz
 -----------------------
 Symbolic Z-matrix:
 Charge = -1 Multiplicity = 1

 SCF Done:  E(RB+HF-LYP) =  -3071.88641207     A.U. after   14 cycles
 SCF Done:  E(RB+HF-LYP) =  -3071.88614413     A.U. after   12 cycles
 SCF Done:  E(RB+HF-LYP) =  -3071.88614431     A.U. after    8 cycles
 Optimization completed.
    -- Stationary point found.
 Normal termination of Gaussian 03 at Fri Dec 14 18:56:10 2012.

 --------------------------------------------------------------------
 #P Geom=AllCheck Guess=Read SCRF=Check GenChk RB3LYP/6-31G(d,p) Freq
 --------------------------------------------------------------------

 Geom from: ts_guess.xyz
 -----------------------
 Redundant internal coordinates taken from checkpoint file:
 /data3/tk/scrg03/Gau-23842.chk
 Charge = -1 Multiplicity = 1

                          Input orientation:
 ---------------------------------------------------------------------
 Center     Atomic     Atomic              Coordinates (Angstroms)
 Number     Number      Type              X           Y           Z
 ---------------------------------------------------------------------
    1          6             0        0.000000    0.002451    0.663238
    2          1             0        0.000000   -1.070397    0.653405
    3          1             0       -0.929210    0.539428    0.653434
    4          1             0        0.929210    0.539428    0.653434
    5         35             0        0.000000   -0.006397   -1.826445
    6         17             0        0.000000   -0.004511    3.027190
 ---------------------------------------------------------------------

 SCF Done:  E(RB+HF-LYP) =  -3071.88614431     A.U. after    1 cycles

 Alpha  occ. eigenvalues -- -482.67090-101.29921 -61.63336 -56.15314 -56.15143
 Alpha  occ. eigenvalues --  -56.15143 -10.09106  -9.21302  -8.34426  -6.97358
 Alpha  occ. eigenvalues --   -6.96932  -6.96932  -6.29353  -6.28804  -6.28804
 Alpha  occ. eigenvalues --   -2.40997  -2.40851  -2.40850  -2.40414  -2.40413
 Alpha  occ. eigenvalues --   -0.58146  -0.53736  -0.49404  -0.29024  -0.29012
 Alpha  occ. eigenvalues --   -0.15318  -0.08948  -0.08948  -0.07434  -0.07431
 Alpha  occ. eigenvalues --   -0.06903
 Alpha virt. eigenvalues --    0.12845   0.25068   0.31810   0.31840   0.45492
 Alpha virt. eigenvalues --    0.57008   0.61317   0.61355   0.64013   0.64776
 Alpha virt. eigenvalues --    0.64783   0.68749   0.68756   0.69833   0.69835

 Mulliken atomic charges:
              1
     1  C   -0.239827
     2  H    0.175741
     3  H    0.174891
     4  H    0.174891
     5  Br  -0.639627
     6  Cl  -0.646070
 Sum of Mulliken charges=  -1.00000

 Dipole moment (field-independent basis, Debye):
    X=     0.0000    Y=     0.0354    Z=    -3.0153  Tot=     3.0155
 Quadrupole moment (field-independent basis, Debye-Ang):
   XX=   -41.2612   YY=   -41.2575   ZZ=   -81.2582
   XY=     0.0000   XZ=     0.0000   YZ=     0.0108

  Exact polarizability:  29.165   0.000  29.160   0.000   0.041 115.614
 Approx polarizability:  41.551   0.000  41.557   0.000   0.079 187.121

 ******    1 imaginary frequencies (negative Signs) ******

                     1                      2                      3
                     A                      A                      A
 Frequencies --  -318.2661               174.6250               180.8343
 Red. masses --    12.9481                35.7083                 4.2044
 Frc consts  --     0.7727                 0.6416                 0.0810
 IR Inten    --   929.0289                 4.9362                 9.8680

                     4                      5                      6
                     A                      A                      A
 Frequencies --   185.7858               890.3625               891.5197
 Red. masses --     4.2051                 1.0109                 1.0109
 Frc consts  --     0.0855                 0.4722                 0.4734
 IR Inten    --     9.8316                 0.0221                 0.0210

                     7                      8                      9
                     A                      A                      A
 Frequencies --   970.9071              1413.0813              1414.6545
 Red. masses --     1.0359                 1.1028                 1.1030
 Frc consts  --     0.5754                 1.2974                 1.3006
 IR Inten    --    93.1143                 4.5284                 4.5805

                    10                     11                     12
                     A                      A                      A
 Frequencies --  3221.4699              3421.5863              3423.1524
 Red. masses --     1.0078                 1.1229                 1.1232
 Frc consts  --     6.1624                 7.7456                 7.7545
 IR Inten    --     0.1906                 1.0685                 1.1735

 - Thermochemistry -
 -------------------
 Temperature   298.150 Kelvin.  Pressure   1.00000 Atm.
 Atom  1 has atomic number  6 and mass  12.00000

 Molecular mass:   128.91066 amu.
 Principal axes and moments of inertia in atomic units:
                           1         2         3
     EIGENVALUES --    12.435902091.895072091.90098
           X            0.00000   0.00000   1.00000
           Y            0.00057   1.00000   0.00000
           Z            1.00000  -0.00057   0.00000
 This molecule is an asymmetric top.
 Rotational symmetry number  1.
 Rotational temperatures (Kelvin)      6.96482     0.04140     0.04140
 Rotational constants (GHZ):         145.12347     0.86273     0.86273
    1 imaginary frequencies ignored.
 Zero-point vibrational energy      96825.6 (Joules/Mol)
                                   23.14188 (Kcal/Mol)
 Warning -- explicit consideration of   3 degrees of freedom as
           vibrations may cause significant error
 Vibrational temperatures:    251.25   260.18   267.30  1281.03  1282.70
          (Kelvin)           1396.92  2033.11  2035.37  4634.97  4922.89
                             4925.15

 Zero-point correction=                           0.036879 (Hartree/Particle)
 Thermal correction to Energy=                    0.041655
 Thermal correction to Enthalpy=                  0.042599
 Thermal correction to Gibbs Free Energy=         0.007734
 Sum of electronic and zero-point Energies=          -3071.849265
 Sum of electronic and thermal Energies=             -3071.844490
 Sum of electronic and thermal Enthalpies=           -3071.843545
 Sum of electronic and thermal Free Energies=        -3071.878410

                     E (Thermal)             CV                S
                      KCal/Mol        Cal/Mol-Kelvin    Cal/Mol-Kelvin
 Total                   26.139             13.198             73.379
 Electronic               0.000              0.000              0.000
 Translational            0.889              2.981             40.475
 Rotational               0.889              2.981             25.501
 Vibrational             24.361              7.236              7.403
 Vibration  1             0.627              1.874              2.385
 Vibration  2             0.630              1.866              2.320
 Vibration  3             0.632              1.859              2.269

 Optimization completed.
    -- Stationary point found.
 Normal termination of Gaussian 03 at Fri Dec 14 18:58:37 2012.
